    1036
 i =   156101, time =    62440.400, E =     -5650.2498639855
  O       -20.3118271135        5.0974894875        3.8253911219
  H       -21.1020225309        5.4160071455        4.4316133806
  H       -19.7735176346        5.8946709370        3.4951704034
  O       -12.7539004927       14.8349467321        0.1744988614
  H       -12.5228471269       15.7778701886        0.6113765468
  H       -13.0660761448       14.3328290929        0.9845007419
  O       -11.7454766566        7.5160827329        4.9149346695
  H       -10.9868990012        7.0438722599        4.5230012583
  H       -12.0220211642        8.1435380701        4.2198785368
  O        -8.2081095066        8.8424775878       -3.7914011004
  H        -8.9541042367        9.0356650637       -4.3565551840
  H        -7.5955115021        9.6655680813       -3.8841259093
  O       -18.2587933250        1.2757969961        3.0521913070
  H       -17.5577092359        1.8823864876        3.4294749733
  H       -17.8463964857        1.0189384850        2.2398970504
  O       -14.0619921542        9.8802616257       -1.7529569228
  H       -13.1862253213       10.2660672629       -1.7750372857
  H       -14.3877987238       10.0920421192       -0.8267317466
  O       -14.9172931326        2.3646729601       -4.4530770228
  H       -14.7875940734        2.6821991558       -3.5533614120
  H       -14.5761287111        3.0948077155       -4.9786063149
  O       -15.4774130008        7.9390424724       -3.1885905009
  H       -16.1367415965        8.4239759240       -3.7819476715
  H       -14.8946767266        8.7164295160       -2.9047735537
  O       -20.7550254030        0.2174939249        2.4753842788
  H       -19.9335396748        0.7712831893        2.5121040694
  H       -21.4509752600        0.5827248346        1.8637214218
  O        -0.1992111726       12.9096028011        2.0498328283
  H        -0.5417357851       13.2977655181        2.8067127334
  H         0.6902212436       12.5169308064        2.2713495259
  O        -4.6379647561       14.8725539884       -3.8100469134
  H        -3.9198343815       15.2564432044       -4.2926180171
  H        -5.1654640727       15.6039921680       -3.3532457740
  O       -11.0755014935       -1.0442767902        1.1519337975
  H       -10.5398835769       -1.7981037522        1.5578660371
  H       -11.2154726555       -1.3145571950        0.2081836712
  O       -13.4294739925        6.4474695797        0.6582432007
  H       -12.9764667503        6.7879329756       -0.1146169033
  H       -12.8714706426        5.7659328977        1.0904280155
  O       -14.8699245759       24.0334966181        0.7542623384
  H       -14.3320099644       24.7287042747        1.1930925495
  H       -15.7856435330       24.2945262190        1.0038117404
  O       -24.8221327887       -8.3691649510        9.1236892935
  H       -24.1191097010       -7.8936298616        8.5691528823
  H       -25.3909908729       -7.7047159073        9.6290268255
  O       -16.7808892081        5.7068601394       -2.1198916110
  H       -16.3053551416        4.9064136631       -2.4109006048
  H       -16.2996989440        6.4276178847       -2.5200463524
  O       -10.8166715125        2.7436489623       -4.2189415746
  H       -11.0900536037        1.8959313867       -3.8351891158
  H        -9.8402919421        2.5901282152       -4.3710630975
  O       -11.2188640175        0.4185853406       -2.3223410091
  H       -12.0598285274        0.4590784433       -2.9837474079
  H       -11.5029138544        0.8064947851       -1.4673657024
  O        -7.2763665693       14.0723385668       -1.0654025435
  H        -6.6160877818       13.3638214136       -1.2004608079
  H        -6.9010402951       14.7405905697       -0.4427466977
  O       -15.3909980842        5.8360728694        8.6168092657
  H       -14.5038216458        5.6589640044        8.2215697636
  H       -15.2290952156        6.6539176418        9.1178408226
  O        -5.6652518360        3.7294089027       -2.5554940646
  H        -5.8130659482        3.5367992577       -1.5848298838
  H        -4.8717554322        4.3666833373       -2.5868913963
  O        -3.4932897003       -0.1819717034       -1.9835601664
  H        -3.7006915290        0.6119615819       -2.5480767827
  H        -2.9445642818       -0.6834639552       -2.6089715593
  O       -25.2280532860        6.9278445711       -1.6490558006
  H       -24.5809718522        7.6488514319       -1.5246817101
  H       -24.7068983474        6.0555004233       -1.6185393687
  O         4.0276257482       14.2332005310        0.7275349009
  H         4.5507204249       14.1545823558       -0.1188481969
  H         3.3411600903       13.5369493842        0.8572955550
  O       -10.3746269908       17.7878119775       -1.9848572505
  H       -10.6417439435       17.3323821040       -2.8272392141
  H        -9.4823130243       18.1678996695       -2.2073736401
  O       -25.7912583120       32.6366159629       13.3154306609
  H       -24.7752314851       32.5703053479       13.4506872280
  H       -25.9794633920       32.8474327459       12.3754061821
  O       -17.9911085212        8.2304045539       12.1548877182
  H       -17.0682685485        8.5195808175       12.2329509761
  H       -18.4440423564        8.9319854201       12.7562330393
  O       -24.6592121838       30.1698456897       15.4633882220
  H       -24.1886314629       29.9932218713       16.2677715309
  H       -24.2157422270       31.0347879439       15.2349626964
  O       -22.3042950076       13.1187605954        9.9020289264
  H       -21.8083427764       12.3685901486        9.4587697347
  H       -22.9389613037       12.7390455996       10.5870987864
  O       -21.7386019475       20.2352780743       10.6804739643
  H       -21.7019855470       19.5796735712        9.9109668369
  H       -20.8604859931       19.8745070521       11.1324198719
  O       -33.9994024566       11.2728945111        8.7843851049
  H       -33.2937698639       10.7448382807        9.2515745444
  H       -34.3264152541       10.5988909931        8.1860920220
  O        -9.8012690249       18.9130717868       14.2937457856
  H        -9.3987048207       19.8186957995       14.1669809858
  H        -9.1665801669       18.3480348396       13.7725520789
  O       -21.7137361280        8.6098401327        7.3756458243
  H       -20.9188120734        8.0818294744        7.0585437389
  H       -21.9831019330        9.1344703044        6.5949174562
  O       -26.7681089819       21.4964657457       14.6473240009
  H       -25.8998156141       21.9299652253       14.6614898774
  H       -26.4632693608       20.6883917102       14.2004745067
  O        -8.6825798516        9.7733812683        4.9342506772
  H        -9.1887668165        9.7427183120        4.0701457953
  H        -8.9391564762       10.6455897341        5.3052280664
  O       -20.3180039781       12.4711876010       14.7604102641
  H       -21.1684748845       12.3533072532       14.2511079613
  H       -20.2028668321       13.4287075574       14.6083225842
  O       -19.3225064847       15.5631896906        8.8768960365
  H       -19.2180459013       14.9382059094        8.1031525276
  H       -19.5726275248       14.9367663028        9.6076621899
  O       -19.2321728674       13.0599580105        7.3287996728
  H       -18.7465204861       12.3896553313        6.5914391800
  H       -19.6811128917       12.3048932689        7.8051295521
  O       -13.3644058163       17.2940860956        7.4109333884
  H       -12.7159609017       17.4157426790        8.1281438836
  H       -13.9813991284       16.5156777674        7.4366419652
  O       -15.9465195544       15.8751915695       11.6088066344
  H       -16.6372823992       16.4068616140       11.1754101093
  H       -15.1599144831       16.4314137269       11.7268003022
  O       -23.2310876958        3.3038249378       10.8025699038
  H       -23.9503104713        3.6214463660       10.1944679474
  H       -22.8202043250        2.7321155691       10.1307244979
  O       -26.0808477188        6.7966117716       10.7683447098
  H       -25.3372700737        7.3972786583       10.9387495597
  H       -26.8386670066        7.3736713579       10.4047264260
  O       -11.8484071534        1.0935130375        7.2306107395
  H       -12.6058118721        1.7081554677        7.1837744145
  H       -10.9825844094        1.5926278818        7.4246151548
  O       -29.6276884712       10.7561634508       10.3403567342
  H       -29.1591893372       11.5713555855       10.6070866444
  H       -30.4786203004       10.7874393141       10.6747032708
  O       -22.8838552538        1.2528547286        4.4294819374
  H       -23.5014316833        0.5532355944        4.7606505310
  H       -22.4397253218        0.7426092064        3.7360228055
  O       -14.7574530461       13.1288534175       10.6792014095
  H       -15.0906949965       14.0210733899       10.8582722247
  H       -13.8517729431       13.2401606007       10.3138193984
  O       -19.4377926090       19.3040790708       11.4306284980
  H       -18.9096999116       20.1297483907       11.6023925186
  H       -18.8986430223       18.7253430419       10.8208531175
  O       -19.4525061176        7.0564158944        7.4012963056
  H       -19.2443263649        7.6981249564        8.1007112569
  H       -18.6272615835        7.0097692338        6.8757884048
  O       -16.2459043599       -1.1062134406        3.6168038798
  H       -17.0324101333       -1.4027131914        4.0873251299
  H       -16.5521510442       -0.6613480071        2.7667999802
  O        -5.3762046634        8.8366746956        9.4092618419
  H        -5.1279577241        8.7627081203       10.3860977090
  H        -4.5373743230        8.8414844825        8.9690676363
  O       -38.2872306502       15.2604024753       12.8360117736
  H       -38.1482834321       15.7983390929       13.6094090209
  H       -37.7047679112       15.6156055542       12.1397519764
  O       -21.4599965217        8.9458153439        0.6114475404
  H       -20.7837207621        9.6233040958        0.7885307057
  H       -20.9440500148        8.0894668129        0.5294838005
  O       -17.8752462089       11.1611994806        5.9477545005
  H       -18.5185055459       10.5560023258        5.4742233485
  H       -17.2965258107       10.5736649227        6.5036041020
  O       -18.8537263059       24.7052299176       11.5217660697
  H       -19.0871788958       25.6806478564       11.3059604557
  H       -18.2392623474       24.7276818692       12.2872135684
  O       -21.2131171506       30.8321579885       12.6600195823
  H       -21.8420174712       30.6501222542       11.9135021463
  H       -20.5002130242       31.3303774092       12.3683250606
  O       -27.0891400780        3.7263338103       12.2899440869
  H       -26.6265792224        4.3672665324       12.9007365459
  H       -26.3698583434        2.9999244990       12.3739162940
  O       -20.9971376578        1.6869789783        6.3876967637
  H       -21.4760321848        1.6699630599        5.5573406025
  H       -20.5113382456        0.8138628215        6.6107592180
  O       -19.0155831856        9.6951496424       14.2093625324
  H       -19.8027943485        9.0162818004       14.3419638000
  H       -19.5441400488       10.5125035231       14.3777582325
  O       -22.9065688760       -7.3402011872        7.5427145214
  H       -22.6237285193       -6.4212877245        7.6214402991
  H       -22.1959223228       -7.9333863560        7.9199376705
  O       -33.2676946360       13.9513539126       10.9148819603
  H       -33.4116965528       14.3149168433       11.8425799300
  H       -34.2291623511       13.6755786457       10.7372408467
  O       -20.7064491470        4.6677942266        8.4662272961
  H       -20.4434292491        3.6984256055        8.5401442368
  H       -19.8865862944        5.1092991373        8.2763576635
  O       -17.6445416203        4.1387451623        9.9964882350
  H       -18.2192708791        3.5232642781        9.4102877965
  H       -16.8337502159        4.4209659847        9.5203022497
  O        -9.4434177038        2.2069065658        8.3982169249
  H        -8.7008914928        2.2388417091        7.7600953557
  H        -9.3267963304        1.3211515166        8.7558556374
  O       -10.3519933485       10.6796165268        8.7764121347
  H       -10.6372894456       10.2408018142        7.8730034049
  H       -11.1191726121       11.3683072695        8.9984565333
  O       -17.5040968763       25.2530302864       13.7740009934
  H       -17.4023732793       26.2376335877       13.7377821105
  H       -17.8605299428       24.9963878113       14.6088871905
  O       -11.3707188971       12.4747901282        4.6761750940
  H       -12.1384708696       12.8648546349        5.2046292349
  H       -10.9709241292       11.8475160061        5.3081935939
  O        -9.3443631517        6.0302620105        4.8886041318
  H        -9.8772040969        5.1710993239        4.6755650896
  H        -9.3727917045        5.9131239891        5.8926087340
  O        -8.8691818489        8.1605738909       13.8440794214
  H        -8.3436009178        8.6247132550       13.1087711357
  H        -9.6843037937        8.6871934808       13.9264875746
  O       -17.1739868791        6.0475312513        6.3813157899
  H       -17.7088641832        5.2631485806        6.3582888568
  H       -16.5591167620        5.9341383258        7.1929929666
  O       -15.3946848636        5.0543606316        3.1612009844
  H       -15.3815556394        4.8244707216        2.2218155256
  H       -14.4882077332        4.8109033341        3.5861697548
  O       -29.6227767224        7.3488648772        4.2310684983
  H       -29.1970384657        6.5669978136        3.7972089929
  H       -29.8974003597        6.9284024019        5.1055066211
  O       -14.3906135199       13.1588048427        5.0624075649
  H       -14.6025018761       14.0093092800        5.5915607474
  H       -15.0730898441       12.8400232845        4.4856815797
  O       -17.3339041576       -0.9971823283        1.1260717455
  H       -17.4109961493       -0.4591310053        0.3073826503
  H       -18.1346552699       -1.6179197328        1.2199838285
  O       -13.3608082002       11.5527952451       12.8448313101
  H       -13.6741024098       12.3437392160       12.3887200074
  H       -12.8274046866       12.0101958875       13.5019223590
  O       -22.4386568244       12.2399268691        6.6785001866
  H       -22.1486086017       13.1595646135        6.7939686045
  H       -22.8144090909       11.9188665974        7.5652491610
  O       -23.2339214899        9.8174723485        2.3011156188
  H       -22.5014411338        9.4080845963        1.7428814967
  H       -24.0247390750        9.2552921480        2.1883558880
  O       -25.6990776485       12.5432359733        9.3968638924
  H       -25.1982347537       12.8011017904       10.1959151857
  H       -25.4636717275       13.2272692846        8.7282476121
  O       -26.6784688916        5.1150232881        5.1779125662
  H       -26.6849113566        4.8257202759        6.1402507807
  H       -26.4578334478        6.0584473951        5.0381499161
  O       -23.7799636509        8.5991327841       10.5564352305
  H       -22.9060620168        8.0702657704       10.5124183609
  H       -23.7055293901        9.2973345847        9.8442906996
  O       -11.0624261903       17.1773706050        4.2091119464
  H       -10.7144452077       16.2829800100        4.3589757112
  H       -11.9585450678       17.4779644775        4.7155419185
  O       -15.3294069287       22.4888325762       12.6783186516
  H       -14.8380908479       22.0406989361       13.4266001756
  H       -14.9607766299       23.4079412032       12.6573804665
  O       -24.0101921900       10.1317694543       12.6141997185
  H       -25.0280269775       10.0667701503       12.6335336225
  H       -23.6604979607        9.6643982321       11.8253837937
  O       -20.8665651670        9.0933278081       11.7016192034
  H       -20.4099237097        9.9238054847       11.5486605910
  H       -21.0815155803        8.5624960183       10.8952706075
  O       -11.6217961748       11.0241149142       -1.3839855805
  H       -11.0869343947       10.1535952656       -1.4608383652
  H       -11.3236672575       11.7580528539       -2.0220470988
  O       -33.2658369800       15.1236676427       13.4057583603
  H       -33.6484844844       16.0201952095       13.2392559653
  H       -32.2606523171       15.1930769897       13.3437918765
  O       -14.9940922433        8.2104027492        9.8742899706
  H       -14.7415245964        8.8841577638        9.2214791529
  H       -15.2085531811        8.6948181440       10.7806180166
  O       -18.8159862861        3.7928794710        5.5457785397
  H       -19.2092417727        4.3281527846        4.7237298536
  H       -19.5040133218        3.1238442615        5.6922872020
  O       -13.1418723694        0.4197154689       -4.2432546009
  H       -13.8094795359       -0.3575980879       -4.2785120476
  H       -13.7766252628        1.2594455684       -4.3440827954
  O       -19.5484516105       -3.5551584510        4.1336856184
  H       -20.4460819341       -3.6028313778        4.5373242354
  H       -19.2722024147       -4.4752448575        3.7903681515
  O       -15.4021552169        4.6059807081        0.3110162775
  H       -16.2986391738        5.1566003036        0.2646362517
  H       -14.6226398538        5.1881392311        0.4312785920
  O       -16.4330198306       -0.1155761375        8.1018988714
  H       -16.2267251560       -0.7793029502        8.7962148366
  H       -17.4533294412        0.0207962155        8.0390314772
  O       -14.8750977798       15.9347800762       -1.6096704009
  H       -15.0212786389       16.7508406296       -1.0528287257
  H       -14.1727301669       15.3493140096       -1.1500554242
  O       -17.7403086964        6.4627246624        0.7937007580
  H       -16.9989964219        7.2020299015        0.8636811251
  H       -18.0089985669        6.4315196396       -0.1697556296
  O       -19.5521047990       -2.6349374268       -3.8655697705
  H       -19.6637581715       -1.7930615022       -4.3475736142
  H       -19.4346169040       -2.3325208691       -2.9156641721
  O       -16.4573310844        2.9307904934        4.7208553233
  H       -16.2612454516        3.6951158270        4.0407921242
  H       -17.3708495272        3.0396393837        5.0825975122
  O       -12.1955943142       -8.8061973321        1.6764251360
  H       -11.4975063488       -9.1560628267        1.0295591931
  H       -11.7770065794       -9.0588800564        2.5496304058
  O        -7.8302107348        4.3786034506        1.2854205274
  H        -8.7713413196        4.0996240633        1.1429935170
  H        -7.7693643898        4.6021324963        2.2918107047
  O       -18.8297746661        7.2986735158        3.1318170874
  H       -18.6592469878        7.0939337637        2.1638083284
  H       -17.8520925842        7.2377794763        3.5051519355
  O       -11.1111100753       -3.3626032424        6.3487558880
  H       -11.1341806680       -4.2381770327        5.9057661274
  H       -12.1141704174       -3.1608017581        6.3813855125
  O        -3.3480416424       15.4882303904        0.6701783259
  H        -2.5400358011       16.0166508347        0.8358292020
  H        -3.0793388060       15.1260569548       -0.2393887439
  O        -7.8796815742        5.6294881295       -2.9706748614
  H        -7.1444299843        5.0623624550       -3.1429998726
  H        -7.9914302836        6.2186817523       -3.7152461569
  O       -14.1583083393       10.4552842053        6.3616690583
  H       -14.4323086768       11.3948816307        6.0290573901
  H       -14.2833501216        9.9656981107        5.5026407833
  O       -19.7998322804       -2.2911691579        1.4734550667
  H       -20.3796314747       -1.5072837602        1.7230266120
  H       -19.8240154812       -2.6816598667        2.4088449378
  O       -30.4702913839        1.4805797309       13.9271466654
  H       -29.8412798504        1.7945484448       13.2076233600
  H       -30.1059091535        1.5016777394       14.8468997529
  O       -19.0318463552       11.6999535341       -1.3385651977
  H       -18.1675420172       12.1447248015       -1.5352756460
  H       -19.0617722907       11.5195071546       -0.3870114554
  O       -17.0936799297        9.9895809508       -4.8354324344
  H       -18.0154012879        9.9854249176       -4.4378143560
  H       -17.1176326778        9.8309380192       -5.7919458670
  O        -7.0715990074       19.9198418515       -0.2141142438
  H        -7.2769558575       19.6390498400       -1.1183025644
  H        -7.0038541578       19.1133490251        0.3836807092
  O        -9.8408838496        9.0897891610       -1.5651698983
  H        -9.1704225264        9.1671196133       -0.8577608754
  H        -9.2351350290        9.0292310178       -2.3450035006
  O       -15.5262218924        8.0765437255        1.1893904333
  H       -15.2213891406        8.9944795171        0.9935710266
  H       -14.7898485732        7.4789763655        0.8318829516
  O       -24.1606639972       12.7321319866       11.8170896552
  H       -24.4089929714       13.4705441507       12.4768735268
  H       -24.2360660134       11.8826366095       12.3974277942
  O       -19.9691653815       -0.0040803262       -4.9603732774
  H       -20.7494300939        0.4092115906       -4.5206235281
  H       -19.1904909497        0.4164790971       -4.5568573253
  O       -14.7237132931        9.6307936541        3.8528454502
  H       -15.0016839627       10.4897510869        3.5185143688
  H       -15.4468254749        8.9766476788        3.9319571352
  O       -21.8879527134        1.1429263348       -3.5538654194
  H       -22.6705738586        0.5067111200       -3.6597959241
  H       -21.5858544140        0.9569201477       -2.5980329828
  O       -15.0119717614        1.8140788339        7.0644455036
  H       -15.5605858847        2.2420170329        6.3626575411
  H       -15.6246840918        1.1796583115        7.5660764522
  O       -16.4525615622       -3.6043306920        7.6112525372
  H       -16.4875167300       -3.0148009633        8.4103653739
  H       -15.5220175710       -3.3697165478        7.2914682899
  O       -19.4403782809        2.9475314193        0.0348420655
  H       -20.0177527739        3.4519695279        0.6504995546
  H       -18.5679175025        2.7603931879        0.4313624771
  O       -23.6491018415        3.4475814131        0.4497067663
  H       -23.5453521453        3.6760529398       -0.5048258706
  H       -23.4734780550        2.4410535176        0.6313628195
  O        -1.8111218064       11.5898276219       -3.6394729037
  H        -1.3206304908       11.1657142158       -2.9075450411
  H        -2.3871047898       10.9643932362       -4.1475145873
  O       -12.5045061322       -4.5291043528        2.5048188246
  H       -13.4175489748       -4.1800763075        2.8063582054
  H       -12.7625544162       -5.2619906620        1.9119207386
  O       -27.4582834786        5.2876853479       -3.8258736481
  H       -26.8305146794        4.8661311965       -3.2378010102
  H       -27.5719697842        6.1390158688       -3.3630871143
  H         9.2204797683       -2.2297838364      -37.8250514698
  H         5.6277874414        1.4155743430      -40.5062982900
  H         7.6818999802        3.6083604163      -39.3241269340
  H         5.4374982645       -1.3428599541      -40.1490560928
  H         1.1426537483       -5.0418050850      -34.6826421962
  H         2.2835815551        9.8185393431      -38.1380294439
  H         2.1882958952        7.1746064795      -39.8936174598
  H         0.5728851633        2.4503194440      -40.1629907710
  O         0.1966723791        4.6448843258      -38.9018051053
  O         8.2400605851       -4.1513566151      -28.5450435531
  O         3.9855654918        3.9945888156      -33.4447662696
  O        -0.5359911512       -2.6197242538      -26.7481320854
  O         8.2173986093       -2.3294271789      -37.5825197697
  O         7.8074696692        1.7253818004      -24.5267123994
 Si         8.1311657340        0.4976935166      -23.3313190992
  O         7.4279142158       -0.8299377777      -23.9721645492
  O         9.7236115820        0.2284507303      -23.4216476944
  H        10.5985157268        0.6701838465      -23.2162645803
  H         6.5984664231       -1.1319419513      -23.5547973902
  C         7.4750161887        1.1785504426      -21.7171869918
  C         6.3501947725        0.5131824263      -20.8819882231
  C         5.9346262350        1.5300300229      -19.8720648742
  C         4.9096095122        1.0095844597      -18.8822314551
  H         5.5711118207        2.4249128880      -20.3341919526
  H         6.8262023358        1.8491883445      -19.3459987217
  C         4.5667621996        2.1566600200      -17.8646074797
  H         5.3528108641        0.1031690092      -18.3984569495
  H         4.0050666280        0.6950400628      -19.3796519479
  C         3.4567004375        1.7265323406      -16.8754427646
  H         4.2018270027        2.9147261458      -18.5337302500
  H         5.4237749074        2.6441883929      -17.3269959761
  C         2.8490142417        2.9305523618      -16.0859029604
  H         3.7915110126        0.9697532097      -16.1317788525
  H         2.6729893946        1.1951723636      -17.3780797936
  C         1.8741062312        2.5045365450      -15.0331044793
  H         2.4823585598        3.5985378297      -16.8699077338
  H         3.6777618771        3.4465495529      -15.6351597270
  C         1.2981575972        3.7496345687      -14.3030703907
  H         2.4127648300        1.8906675029      -14.2793963868
  H         1.0168719739        1.9416719640      -15.4192890834
  C         0.2926297768        3.2484629929      -13.2424591932
  H         0.8589221158        4.4900725673      -15.0939441121
  H         2.0870593739        4.3226615611      -13.7826595136
  C        -0.4673891319        4.3485801336      -12.5106146734
  H         0.7890764169        2.5792595659      -12.6215071500
  H        -0.5029223625        2.7661088087      -13.7583389559
  C        -1.5470095661        3.8638915773      -11.5797359979
  H        -0.8836177544        5.0318590379      -13.2834377063
  H         0.1968046080        4.9977358144      -11.9108434033
  C        -1.9553934140        4.7798578033      -10.4080140805
  H        -1.1330219630        2.9283833921      -11.2005651587
  H        -2.3426440981        3.6069535585      -12.2410203244
  C        -3.0226511285        4.1625379768       -9.4408428160
  H        -2.2058108303        5.7593138615      -10.8745832436
  H        -1.0982183702        4.9182200668       -9.7549359659
  C        -3.1596874994        4.9617398360       -8.1301402549
  H        -2.8157764335        3.0902273929       -9.3454249677
  H        -4.0903139624        4.2101270927       -9.8513009248
  C        -4.0881205890        4.3750838917       -7.0620048412
  H        -3.6822732654        5.9163476902       -8.3443538322
  H        -2.1569749401        5.1685533787       -7.6779304299
  C        -4.1165079470        5.2638399786       -5.7811896459
  H        -3.8182910806        3.2619592799       -6.8726326866
  H        -5.1004043264        4.2863990962       -7.4547040765
  C        -5.0150573093        6.4865143570       -5.9190422492
  H        -3.1080694524        5.5473632343       -5.5168231753
  H        -4.6251147347        4.7832344341       -4.9721144695
  H        -6.0393519853        6.1672079175       -6.2227121312
  H        -4.7421608230        7.1998579729       -6.7691744661
  H        -5.1222837964        7.0218561092       -4.9921882084
  H         5.5379769485        0.2272712133      -21.5415751041
  H         6.6740824446       -0.4480206146      -20.4259713704
  H         7.2527944665        2.2388465357      -21.8213334154
  H         8.3751428350        1.0598859239      -21.0400725551
  O         3.0322114239        6.9692475023      -29.7217447960
  O         6.4644578215        4.4025905525      -32.7666215908
  O        -0.4369293371       -4.4099772815      -37.0404094220
  O        -1.3854133092       -1.2134656799      -33.2724186519
  O         3.0413093953        0.5909180896      -27.3345219231
  O        -2.1269099241        3.9212439140      -30.2774670571
  O         7.8646690300        3.1619697544      -26.9294771849
  O        -2.6087636540       -3.5964864492      -33.0836528102
  O         9.2546700040        2.9280145446      -36.9969476546
  O         8.6172832825       -2.4103312212      -30.5381478453
  O        -2.4662123718        4.4588296414      -38.3716583808
  O        -1.8919799173        1.1980863219      -33.0430369390
  O         1.2100436085        6.5685496620      -37.3807639023
  O         6.7030716270        5.5539262026      -35.3236227293
  O         4.5870656598        8.5954778678      -35.2992321968
  O         2.1227710404        5.7049166360      -32.0736739079
  O         5.0375020051       -0.9040091017      -28.0144474186
  O        -1.9388833454       -1.9079771005      -36.8530595712
  O         1.7463743580       -2.5522987282      -27.9056799547
  O         5.5606395168        4.0159383599      -28.6998545636
  O         7.4936762827       -1.6118011806      -35.2234346794
  O         9.6992784600        0.2266747526      -37.0639321474
  O         0.6042380553       -1.9653123436      -36.8046336410
  O        10.0487590984        7.4402406099      -34.2203918284
  O         7.1125985711        2.5194618012      -30.0586823198
  O         0.6647526029        5.2798342812      -34.1816577480